# vtk DataFile Version 3.0
Bracket2D Simulation
ASCII
DATASET POLYDATA
POINTS 4 float
0.000000e+00 0.000000e+00 0.0
2.000000e-01 0.000000e+00 0.0
0.000000e+00 5.000000e-02 0.0
2.000000e-01 5.000000e-02 0.0
POLYGONS 1 5
4 0 1 3 2

POINT_DATA 4
SCALARS displacement float 1
LOOKUP_TABLE default
0.000000e+00
9.523810e-07
0.000000e+00
5.000000e+10

SCALARS stress float 1
LOOKUP_TABLE default
2.000000e+06
2.000000e+06
2.000000e+06
2.000000e+06

